Title: * C:\Users\sanme_000\Documents\Visual Studio 2015\Projects\VideoRental2\VideoRental2\Content\OtherFile\RC2.asc
Date: Thu Jul 06 19:50:37 2017
Plotname: Transient Analysis
Flags: real forward
No. Variables: 6
No. Points:         1042
Offset:   0.0000000000000000e+000
Command: Linear Technology Corporation LTspice IV
Variables:
	0	time	time
	1	V(n001)	voltage
	2	V(n002)	voltage
	3	I(C1)	device_current
	4	I(R1)	device_current
	5	I(V1)	device_current
Values:
0		0.000000000000000e+000
	5.000000000000000e+000
	0.000000000000000e+000
	0.000000000000000e+000
	1.000000000000000e+000
	-1.000000000000000e+000
1		2.441406243836042e-010
	5.000000000000000e+000
	2.441406124626759e-007
	9.999999511718776e-001
	9.999999511718776e-001
	-9.999999511718775e-001
2		4.882812487672084e-010
	5.000000000000000e+000
	4.882812130044240e-007
	9.999999023437576e-001
	9.999999023437575e-001
	-9.999999023437574e-001
3		9.765624975344167e-010
	5.000000000000000e+000
	9.765623902460661e-007
	9.999998046875223e-001
	9.999998046875220e-001
	-9.999998046875219e-001
4		1.953124995068833e-009
	5.000000000000000e+000
	1.953124601678239e-006
	9.999996093750796e-001
	9.999996093750797e-001
	-9.999996093750797e-001
5		3.906249990137667e-009
	5.000000000000000e+000
	3.906248452338275e-006
	9.999992187503093e-001
	9.999992187503095e-001
	-9.999992187503095e-001
6		7.812499980275334e-009
	5.000000000000000e+000
	7.812493864842236e-006
	9.999984375012270e-001
	9.999984375012270e-001
	-9.999984375012271e-001
7		1.562499996055067e-008
	5.000000000000000e+000
	1.562497553459465e-005
	9.999968750048933e-001
	9.999968750048931e-001
	-9.999968750048931e-001
8		3.124999992110134e-008
	5.000000000000000e+000
	3.124990225314896e-005
	9.999937500195495e-001
	9.999937500195494e-001
	-9.999937500195494e-001
9		6.249999984220267e-008
	5.000000000000000e+000
	6.249960920702775e-005
	9.999875000781584e-001
	9.999875000781586e-001
	-9.999875000781586e-001
10		1.249999996844053e-007
	5.000000000000000e+000
	1.249984371864434e-004
	9.999750003125620e-001
	9.999750003125627e-001
	-9.999750003125627e-001
11		2.499999993688107e-007
	5.000000000000000e+000
	2.499937494685273e-004
	9.999500012501059e-001
	9.999500012501064e-001
	-9.999500012501063e-001
12		4.999999987376214e-007
	5.000000000000000e+000
	4.999749996186581e-004
	9.999000050000761e-001
	9.999000050000764e-001
	-9.999000050000763e-001
13		9.999999974752427e-007
	5.000000000000000e+000
	9.999000046062576e-004
	9.998000199990793e-001
	9.998000199990789e-001
	-9.998000199990788e-001
14		1.999999994950485e-006
	5.000000000000000e+000
	1.999600052076589e-003
	9.996000799895839e-001
	9.996000799895847e-001
	-9.996000799895847e-001
15		3.999999989900971e-006
	5.000000000000000e+000
	3.998400446930302e-003
	9.992003199106136e-001
	9.992003199106141e-001
	-9.992003199106140e-001
16		7.999999979801942e-006
	5.000000000000000e+000
	7.993603635210527e-003
	9.984012792729575e-001
	9.984012792729580e-001
	-9.984012792729579e-001
17		1.599999995960388e-005
	5.000000000000000e+000
	1.597442918880167e-002
	9.968051141622394e-001
	9.968051141622397e-001
	-9.968051141622397e-001
18		3.199999991920777e-005
	5.000000000000000e+000
	3.189783352825166e-002
	9.936204332943497e-001
	9.936204332943497e-001
	-9.936204332943497e-001
19		5.641406241920777e-005
	5.000000000000000e+000
	5.609706473366690e-002
	9.887805870532667e-001
	9.887805870532667e-001
	-9.887805870532667e-001
20		8.082812491920777e-005
	5.000000000000000e+000
	8.017842340520286e-002
	9.839643153189588e-001
	9.839643153189596e-001
	-9.839643153189595e-001
21		1.052421874192078e-004
	5.000000000000000e+000
	1.041424836906135e-001
	9.791715032618775e-001
	9.791715032618774e-001
	-9.791715032618773e-001
22		1.296562499192078e-004
	5.000000000000000e+000
	1.279898169410245e-001
	9.744020366117958e-001
	9.744020366117951e-001
	-9.744020366117951e-001
23		1.540703124192078e-004
	5.000000000000000e+000
	1.517209917245558e-001
	9.696558016550902e-001
	9.696558016550889e-001
	-9.696558016550888e-001
24		1.784843749192078e-004
	5.000000000000000e+000
	1.753365738398771e-001
	9.649326852320233e-001
	9.649326852320247e-001
	-9.649326852320246e-001
25		2.028984374192078e-004
	5.000000000000000e+000
	1.988371263296974e-001
	9.602325747340608e-001
	9.602325747340607e-001
	-9.602325747340605e-001
26		2.273124999192078e-004
	5.000000000000000e+000
	2.222232094941899e-001
	9.555553581011615e-001
	9.555553581011621e-001
	-9.555553581011620e-001
27		2.517265624192077e-004
	5.000000000000000e+000
	2.454953809043497e-001
	9.509009238191304e-001
	9.509009238191301e-001
	-9.509009238191301e-001
28		2.761406249192078e-004
	5.000000000000000e+000
	2.686541954152881e-001
	9.462691609169447e-001
	9.462691609169425e-001
	-9.462691609169424e-001
29		3.005546874192078e-004
	5.000000000000000e+000
	2.917002051794612e-001
	9.416599589641095e-001
	9.416599589641077e-001
	-9.416599589641078e-001
30		3.249687499192078e-004
	5.000000000000000e+000
	3.146339596598340e-001
	9.370732080680355e-001
	9.370732080680333e-001
	-9.370732080680332e-001
31		3.493828124192078e-004
	5.000000000000000e+000
	3.374560056429815e-001
	9.325087988714031e-001
	9.325087988714037e-001
	-9.325087988714037e-001
32		3.737968749192079e-004
	5.000000000000000e+000
	3.601668872521243e-001
	9.279666225495760e-001
	9.279666225495751e-001
	-9.279666225495752e-001
33		3.982109374192079e-004
	5.000000000000000e+000
	3.827671459601023e-001
	9.234465708079789e-001
	9.234465708079797e-001
	-9.234465708079795e-001
34		4.226249999192079e-004
	5.000000000000000e+000
	4.052573206022840e-001
	9.189485358795437e-001
	9.189485358795433e-001
	-9.189485358795432e-001
35		4.470390624192079e-004
	5.000000000000000e+000
	4.276379473894136e-001
	9.144724105221158e-001
	9.144724105221173e-001
	-9.144724105221173e-001
36		4.714531249192079e-004
	5.000000000000000e+000
	4.499095599203955e-001
	9.100180880159172e-001
	9.100180880159210e-001
	-9.100180880159209e-001
37		4.958671874192080e-004
	5.000000000000000e+000
	4.720726891950161e-001
	9.055854621609925e-001
	9.055854621609968e-001
	-9.055854621609968e-001
38		5.202812499192080e-004
	5.000000000000000e+000
	4.941278636266040e-001
	9.011744272746824e-001
	9.011744272746793e-001
	-9.011744272746792e-001
39		5.446953124192080e-004
	5.000000000000000e+000
	5.160756090546284e-001
	8.967848781890808e-001
	8.967848781890745e-001
	-8.967848781890744e-001
40		5.691093749192080e-004
	5.000000000000000e+000
	5.379164487572362e-001
	8.924167102485541e-001
	8.924167102485529e-001
	-8.924167102485527e-001
41		5.935234374192081e-004
	5.000000000000000e+000
	5.596509034637278e-001
	8.880698193072476e-001
	8.880698193072544e-001
	-8.880698193072545e-001
42		6.179374999192081e-004
	5.000000000000000e+000
	5.812794913669732e-001
	8.837441017266059e-001
	8.837441017266055e-001
	-8.837441017266053e-001
43		6.423515624192081e-004
	5.000000000000000e+000
	6.028027281357654e-001
	8.794394543728430e-001
	8.794394543728470e-001
	-8.794394543728469e-001
44		6.667656249192081e-004
	5.000000000000000e+000
	6.242211269271157e-001
	8.751557746145764e-001
	8.751557746145769e-001
	-8.751557746145768e-001
45		6.911796874192081e-004
	5.000000000000000e+000
	6.455351983984888e-001
	8.708929603203046e-001
	8.708929603203024e-001
	-8.708929603203023e-001
46		7.155937499192082e-004
	5.000000000000000e+000
	6.667454507199770e-001
	8.666509098560056e-001
	8.666509098560046e-001
	-8.666509098560046e-001
47		7.400078124192082e-004
	5.000000000000000e+000
	6.878523895864164e-001
	8.624295220827207e-001
	8.624295220827168e-001
	-8.624295220827167e-001
48		7.644218749192082e-004
	5.000000000000000e+000
	7.088565182294440e-001
	8.582286963541108e-001
	8.582286963541113e-001
	-8.582286963541113e-001
49		7.888359374192082e-004
	5.000000000000000e+000
	7.297583374294954e-001
	8.540483325140968e-001
	8.540483325141010e-001
	-8.540483325141010e-001
50		8.132499999192082e-004
	5.000000000000000e+000
	7.505583455277445e-001
	8.498883308944514e-001
	8.498883308944510e-001
	-8.498883308944512e-001
51		8.376640624192083e-004
	5.000000000000000e+000
	7.712570384379844e-001
	8.457485923124040e-001
	8.457485923124031e-001
	-8.457485923124031e-001
52		8.620781249192083e-004
	5.000000000000000e+000
	7.918549096584523e-001
	8.416290180683177e-001
	8.416290180683096e-001
	-8.416290180683095e-001
53		8.864921874192083e-004
	5.000000000000000e+000
	8.123524502835939e-001
	8.375295099432805e-001
	8.375295099432812e-001
	-8.375295099432812e-001
54		9.109062499192083e-004
	5.000000000000000e+000
	8.327501490157733e-001
	8.334499701968525e-001
	8.334499701968454e-001
	-8.334499701968453e-001
55		9.353203124192084e-004
	5.000000000000000e+000
	8.530484921769240e-001
	8.293903015646151e-001
	8.293903015646151e-001
	-8.293903015646151e-001
56		9.597343749192084e-004
	5.000000000000000e+000
	8.732479637201441e-001
	8.253504072559821e-001
	8.253504072559713e-001
	-8.253504072559712e-001
57		9.841484374192083e-004
	5.000000000000000e+000
	8.933490452412344e-001
	8.213301909517554e-001
	8.213301909517532e-001
	-8.213301909517531e-001
58		1.008562499919208e-003
	5.000000000000000e+000
	9.133522159901810e-001
	8.173295568019654e-001
	8.173295568019638e-001
	-8.173295568019638e-001
59		1.032976562419208e-003
	5.000000000000000e+000
	9.332579528825815e-001
	8.133484094234831e-001
	8.133484094234839e-001
	-8.133484094234837e-001
60		1.057390624919208e-003
	5.000000000000000e+000
	9.530667305110151e-001
	8.093866538978034e-001
	8.093866538977971e-001
	-8.093866538977970e-001
61		1.081804687419208e-003
	5.000000000000000e+000
	9.727790211563584e-001
	8.054441957687288e-001
	8.054441957687284e-001
	-8.054441957687283e-001
62		1.106218749919208e-003
	5.000000000000000e+000
	9.923952947990454e-001
	8.015209410401951e-001
	8.015209410401909e-001
	-8.015209410401909e-001
63		1.130632812419208e-003
	5.000000000000000e+000
	1.011916019130273e+000
	7.976167961739407e-001
	7.976167961739455e-001
	-7.976167961739454e-001
64		1.155046874919208e-003
	5.000000000000000e+000
	1.031341659563150e+000
	7.937316680873749e-001
	7.937316680873701e-001
	-7.937316680873700e-001
65		1.179460937419208e-003
	5.000000000000000e+000
	1.050672679243798e+000
	7.898654641512479e-001
	7.898654641512405e-001
	-7.898654641512405e-001
66		1.203874999919208e-003
	5.000000000000000e+000
	1.069909539062386e+000
	7.860180921875184e-001
	7.860180921875228e-001
	-7.860180921875227e-001
67		1.228289062419207e-003
	5.000000000000000e+000
	1.089052697664128e+000
	7.821894604671797e-001
	7.821894604671744e-001
	-7.821894604671744e-001
68		1.252703124919207e-003
	5.000000000000000e+000
	1.108102611460211e+000
	7.783794777079578e-001
	7.783794777079578e-001
	-7.783794777079578e-001
69		1.277117187419207e-003
	5.000000000000000e+000
	1.127059734638681e+000
	7.745880530722644e-001
	7.745880530722640e-001
	-7.745880530722639e-001
70		1.301531249919207e-003
	5.000000000000000e+000
	1.145924519175267e+000
	7.708150961649523e-001
	7.708150961649466e-001
	-7.708150961649465e-001
71		1.325945312419207e-003
	5.000000000000000e+000
	1.164697414844165e+000
	7.670605170311688e-001
	7.670605170311670e-001
	-7.670605170311670e-001
72		1.350359374919207e-003
	5.000000000000000e+000
	1.183378869228753e+000
	7.633242261542534e-001
	7.633242261542494e-001
	-7.633242261542494e-001
73		1.374773437419207e-003
	5.000000000000000e+000
	1.201969327732266e+000
	7.596061344535485e-001
	7.596061344535467e-001
	-7.596061344535467e-001
74		1.399187499919207e-003
	5.000000000000000e+000
	1.220469233588417e+000
	7.559061532823108e-001
	7.559061532823167e-001
	-7.559061532823166e-001
75		1.423601562419207e-003
	5.000000000000000e+000
	1.238879027871961e+000
	7.522241944256081e-001
	7.522241944256080e-001
	-7.522241944256078e-001
76		1.448015624919207e-003
	5.000000000000000e+000
	1.257199149509214e+000
	7.485601700981590e-001
	7.485601700981572e-001
	-7.485601700981572e-001
77		1.472429687419207e-003
	5.000000000000000e+000
	1.275430035288516e+000
	7.449139929422870e-001
	7.449139929422968e-001
	-7.449139929422968e-001
78		1.496843749919207e-003
	5.000000000000000e+000
	1.293572119870647e+000
	7.412855760258736e-001
	7.412855760258706e-001
	-7.412855760258705e-001
79		1.521257812419206e-003
	5.000000000000000e+000
	1.311625835799188e+000
	7.376748328401703e-001
	7.376748328401626e-001
	-7.376748328401624e-001
80		1.545671874919206e-003
	5.000000000000000e+000
	1.329591613510833e+000
	7.340816772978371e-001
	7.340816772978335e-001
	-7.340816772978334e-001
81		1.570085937419206e-003
	5.000000000000000e+000
	1.347469881345656e+000
	7.305060237308680e-001
	7.305060237308688e-001
	-7.305060237308687e-001
82		1.594499999919206e-003
	5.000000000000000e+000
	1.365261065557319e+000
	7.269477868885446e-001
	7.269477868885362e-001
	-7.269477868885362e-001
83		1.618914062419206e-003
	5.000000000000000e+000
	1.382965590323236e+000
	7.234068819353610e-001
	7.234068819353530e-001
	-7.234068819353529e-001
84		1.643328124919206e-003
	5.000000000000000e+000
	1.400583877754686e+000
	7.198832244490632e-001
	7.198832244490628e-001
	-7.198832244490627e-001
85		1.667742187419206e-003
	5.000000000000000e+000
	1.418116347906880e+000
	7.163767304186308e-001
	7.163767304186242e-001
	-7.163767304186240e-001
86		1.692156249919206e-003
	5.000000000000000e+000
	1.435563418788970e+000
	7.128873162422025e-001
	7.128873162422060e-001
	-7.128873162422059e-001
87		1.716570312419206e-003
	5.000000000000000e+000
	1.452925506374021e+000
	7.094148987251856e-001
	7.094148987251958e-001
	-7.094148987251957e-001
88		1.740984374919206e-003
	5.000000000000000e+000
	1.470203024608926e+000
	7.059593950782102e-001
	7.059593950782148e-001
	-7.059593950782148e-001
89		1.765398437419206e-003
	5.000000000000000e+000
	1.487396385424275e+000
	7.025207229151533e-001
	7.025207229151450e-001
	-7.025207229151449e-001
90		1.789812499919205e-003
	5.000000000000000e+000
	1.504505998744176e+000
	6.990988002511784e-001
	6.990988002511648e-001
	-6.990988002511647e-001
91		1.814226562419205e-003
	5.000000000000000e+000
	1.521532272496031e+000
	6.956935455007880e-001
	6.956935455007938e-001
	-6.956935455007938e-001
92		1.838640624919205e-003
	5.000000000000000e+000
	1.538475612620259e+000
	6.923048774759479e-001
	6.923048774759482e-001
	-6.923048774759482e-001
93		1.863054687419205e-003
	5.000000000000000e+000
	1.555336423079976e+000
	6.889327153839986e-001
	6.889327153840049e-001
	-6.889327153840048e-001
94		1.887468749919205e-003
	5.000000000000000e+000
	1.572115105870623e+000
	6.855769788258783e-001
	6.855769788258753e-001
	-6.855769788258752e-001
95		1.911882812419205e-003
	5.000000000000000e+000
	1.588812061029558e+000
	6.822375877941056e-001
	6.822375877940884e-001
	-6.822375877940883e-001
96		1.936296874919205e-003
	5.000000000000000e+000
	1.605427686645585e+000
	6.789144626708605e-001
	6.789144626708830e-001
	-6.789144626708830e-001
97		1.960710937419205e-003
	5.000000000000000e+000
	1.621962378868451e+000
	6.756075242263080e-001
	6.756075242263098e-001
	-6.756075242263098e-001
98		1.985124999919205e-003
	5.000000000000000e+000
	1.638416531918288e+000
	6.723166936163523e-001
	6.723166936163425e-001
	-6.723166936163424e-001
99		2.009539062419205e-003
	5.000000000000000e+000
	1.654790538095013e+000
	6.690418923809887e-001
	6.690418923809974e-001
	-6.690418923809973e-001
100		2.033953124919205e-003
	5.000000000000000e+000
	1.671084787787682e+000
	6.657830424424560e-001
	6.657830424424636e-001
	-6.657830424424636e-001
101		2.058367187419205e-003
	5.000000000000000e+000
	1.687299669483797e+000
	6.625400661032472e-001
	6.625400661032407e-001
	-6.625400661032406e-001
102		2.082781249919204e-003
	5.000000000000000e+000
	1.703435569778566e+000
	6.593128860442903e-001
	6.593128860442867e-001
	-6.593128860442867e-001
103		2.107195312419204e-003
	5.000000000000000e+000
	1.719492873384126e+000
	6.561014253231576e-001
	6.561014253231748e-001
	-6.561014253231747e-001
104		2.131609374919204e-003
	5.000000000000000e+000
	1.735471963138709e+000
	6.529056073722757e-001
	6.529056073722581e-001
	-6.529056073722581e-001
105		2.156023437419204e-003
	5.000000000000000e+000
	1.751373220015774e+000
	6.497253559968499e-001
	6.497253559968452e-001
	-6.497253559968452e-001
106		2.180437499919204e-003
	5.000000000000000e+000
	1.767197023133087e+000
	6.465605953733871e-001
	6.465605953733827e-001
	-6.465605953733826e-001
107		2.204851562419204e-003
	5.000000000000000e+000
	1.782943749761761e+000
	6.434112500476488e-001
	6.434112500476478e-001
	-6.434112500476477e-001
108		2.229265624919204e-003
	5.000000000000000e+000
	1.798613775335255e+000
	6.402772449329461e-001
	6.402772449329490e-001
	-6.402772449329490e-001
109		2.253679687419204e-003
	5.000000000000000e+000
	1.814207473458318e+000
	6.371585053083493e-001
	6.371585053083365e-001
	-6.371585053083366e-001
110		2.278093749919204e-003
	5.000000000000000e+000
	1.829725215915901e+000
	6.340549568168115e-001
	6.340549568168199e-001
	-6.340549568168199e-001
111		2.302507812419204e-003
	5.000000000000000e+000
	1.845167372682019e+000
	6.309665254636059e-001
	6.309665254635963e-001
	-6.309665254635962e-001
112		2.326921874919204e-003
	5.000000000000000e+000
	1.860534311928575e+000
	6.278931376142793e-001
	6.278931376142851e-001
	-6.278931376142849e-001
113		2.351335937419203e-003
	5.000000000000000e+000
	1.875826400034135e+000
	6.248347199931743e-001
	6.248347199931731e-001
	-6.248347199931730e-001
114		2.375749999919203e-003
	5.000000000000000e+000
	1.891044001592663e+000
	6.217911996814678e-001
	6.217911996814673e-001
	-6.217911996814673e-001
115		2.400164062419203e-003
	5.000000000000000e+000
	1.906187479422217e+000
	6.187625041155513e-001
	6.187625041155566e-001
	-6.187625041155566e-001
116		2.424578124919203e-003
	5.000000000000000e+000
	1.921257194573595e+000
	6.157485610852689e-001
	6.157485610852810e-001
	-6.157485610852810e-001
117		2.448992187419203e-003
	5.000000000000000e+000
	1.936253506338946e+000
	6.127492987322114e-001
	6.127492987322110e-001
	-6.127492987322110e-001
118		2.473406249919203e-003
	5.000000000000000e+000
	1.951176772260335e+000
	6.097646455479264e-001
	6.097646455479331e-001
	-6.097646455479331e-001
119		2.497820312419203e-003
	5.000000000000000e+000
	1.966027348138268e+000
	6.067945303723548e-001
	6.067945303723464e-001
	-6.067945303723465e-001
120		2.522234374919203e-003
	5.000000000000000e+000
	1.980805588040176e+000
	6.038388823919831e-001
	6.038388823919649e-001
	-6.038388823919648e-001
121		2.546648437419203e-003
	5.000000000000000e+000
	1.995511844308855e+000
	6.008976311382241e-001
	6.008976311382290e-001
	-6.008976311382289e-001
122		2.571062499919203e-003
	5.000000000000000e+000
	2.010146467570868e+000
	5.979707064858246e-001
	5.979707064858265e-001
	-5.979707064858264e-001
123		2.595476562419203e-003
	5.000000000000000e+000
	2.024709806744901e+000
	5.950580386509898e-001
	5.950580386510198e-001
	-5.950580386510198e-001
124		2.619890624919203e-003
	5.000000000000000e+000
	2.039202209050090e+000
	5.921595581899908e-001
	5.921595581899821e-001
	-5.921595581899821e-001
125		2.644304687419202e-003
	5.000000000000000e+000
	2.053624020014288e+000
	5.892751959971463e-001
	5.892751959971424e-001
	-5.892751959971423e-001
126		2.668718749919202e-003
	5.000000000000000e+000
	2.067975583482313e+000
	5.864048833035440e-001
	5.864048833035374e-001
	-5.864048833035372e-001
127		2.693132812419202e-003
	5.000000000000000e+000
	2.082257241624143e+000
	5.835485516751646e-001
	5.835485516751714e-001
	-5.835485516751715e-001
128		2.717546874919202e-003
	5.000000000000000e+000
	2.096469334943071e+000
	5.807061330113754e-001
	5.807061330113859e-001
	-5.807061330113859e-001
129		2.741960937419202e-003
	5.000000000000000e+000
	2.110612202283826e+000
	5.778775595432535e-001
	5.778775595432347e-001
	-5.778775595432347e-001
130		2.766374999919202e-003
	5.000000000000000e+000
	2.124686180840651e+000
	5.750627638318520e-001
	5.750627638318697e-001
	-5.750627638318697e-001
131		2.790789062419202e-003
	5.000000000000000e+000
	2.138691606165344e+000
	5.722616787669210e-001
	5.722616787669311e-001
	-5.722616787669311e-001
132		2.815203124919202e-003
	5.000000000000000e+000
	2.152628812175256e+000
	5.694742375649469e-001
	5.694742375649490e-001
	-5.694742375649489e-001
133		2.839617187419202e-003
	5.000000000000000e+000
	2.166498131161251e+000
	5.667003737677590e-001
	5.667003737677498e-001
	-5.667003737677498e-001
134		2.864031249919202e-003
	5.000000000000000e+000
	2.180299893795634e+000
	5.639400212408816e-001
	5.639400212408733e-001
	-5.639400212408734e-001
135		2.888445312419202e-003
	5.000000000000000e+000
	2.194034429140029e+000
	5.611931141719708e-001
	5.611931141719943e-001
	-5.611931141719943e-001
136		2.912859374919201e-003
	5.000000000000000e+000
	2.207702064653228e+000
	5.584595870693647e-001
	5.584595870693544e-001
	-5.584595870693543e-001
137		2.937273437419201e-003
	5.000000000000000e+000
	2.221303126198999e+000
	5.557393747602077e-001
	5.557393747602002e-001
	-5.557393747602002e-001
138		2.961687499919201e-003
	5.000000000000000e+000
	2.234837938053851e+000
	5.530324123892285e-001
	5.530324123892297e-001
	-5.530324123892298e-001
139		2.986101562419201e-003
	5.000000000000000e+000
	2.248306822914768e+000
	5.503386354170630e-001
	5.503386354170464e-001
	-5.503386354170464e-001
140		3.010515624919201e-003
	5.000000000000000e+000
	2.261710101906903e+000
	5.476579796186343e-001
	5.476579796186195e-001
	-5.476579796186194e-001
141		3.034929687419201e-003
	5.000000000000000e+000
	2.275048094591234e+000
	5.449903810817318e-001
	5.449903810817534e-001
	-5.449903810817534e-001
142		3.059343749919201e-003
	5.000000000000000e+000
	2.288321118972183e+000
	5.423357762055616e-001
	5.423357762055635e-001
	-5.423357762055636e-001
143		3.083757812419201e-003
	5.000000000000000e+000
	2.301529491505197e+000
	5.396941016989558e-001
	5.396941016989606e-001
	-5.396941016989606e-001
144		3.108171874919201e-003
	5.000000000000000e+000
	2.314673527104295e+000
	5.370652945791221e-001
	5.370652945791411e-001
	-5.370652945791411e-001
145		3.132585937419201e-003
	5.000000000000000e+000
	2.327753539149573e+000
	5.344492921700805e-001
	5.344492921700853e-001
	-5.344492921700852e-001
146		3.156999999919201e-003
	5.000000000000000e+000
	2.340769839494680e+000
	5.318460321010434e-001
	5.318460321010640e-001
	-5.318460321010641e-001
147		3.181414062419201e-003
	5.000000000000000e+000
	2.353722738474248e+000
	5.292554523051365e-001
	5.292554523051504e-001
	-5.292554523051503e-001
148		3.205828124919200e-003
	5.000000000000000e+000
	2.366612544911295e+000
	5.266774910177219e-001
	5.266774910177410e-001
	-5.266774910177410e-001
149		3.230242187419200e-003
	5.000000000000000e+000
	2.379439566124586e+000
	5.241120867750908e-001
	5.241120867750828e-001
	-5.241120867750828e-001
150		3.254656249919200e-003
	5.000000000000000e+000
	2.392204107935962e+000
	5.215591784127867e-001
	5.215591784128077e-001
	-5.215591784128077e-001
151		3.279070312419200e-003
	5.000000000000000e+000
	2.404906474677627e+000
	5.190187050644681e-001
	5.190187050644747e-001
	-5.190187050644746e-001
152		3.303484374919200e-003
	5.000000000000000e+000
	2.417546969199411e+000
	5.164906061601187e-001
	5.164906061601178e-001
	-5.164906061601178e-001
153		3.327898437419200e-003
	5.000000000000000e+000
	2.430125892875985e+000
	5.139748214247959e-001
	5.139748214248030e-001
	-5.139748214248030e-001
154		3.352312499919200e-003
	5.000000000000000e+000
	2.442643545614046e+000
	5.114712908771821e-001
	5.114712908771908e-001
	-5.114712908771908e-001
155		3.376726562419200e-003
	5.000000000000000e+000
	2.455100225859473e+000
	5.089799548281064e-001
	5.089799548281054e-001
	-5.089799548281055e-001
156		3.401140624919200e-003
	5.000000000000000e+000
	2.467496230604434e+000
	5.065007538791235e-001
	5.065007538791133e-001
	-5.065007538791132e-001
157		3.425554687419200e-003
	5.000000000000000e+000
	2.479831855394475e+000
	5.040336289210927e-001
	5.040336289211050e-001
	-5.040336289211049e-001
158		3.449968749919200e-003
	5.000000000000000e+000
	2.492107394335565e+000
	5.015785211328989e-001
	5.015785211328872e-001
	-5.015785211328872e-001
159		3.474382812419199e-003
	5.000000000000000e+000
	2.504323140101100e+000
	4.991353719798042e-001
	4.991353719797800e-001
	-4.991353719797799e-001
160		3.498796874919199e-003
	5.000000000000000e+000
	2.516479383938894e+000
	4.967041232122256e-001
	4.967041232122212e-001
	-4.967041232122212e-001
161		3.523210937419199e-003
	5.000000000000000e+000
	2.528576415678110e+000
	4.942847168643709e-001
	4.942847168643780e-001
	-4.942847168643779e-001
162		3.547624999919199e-003
	5.000000000000000e+000
	2.540614523736181e+000
	4.918770952527609e-001
	4.918770952527639e-001
	-4.918770952527639e-001
163		3.572039062419199e-003
	5.000000000000000e+000
	2.552593995125679e+000
	4.894812009748648e-001
	4.894812009748643e-001
	-4.894812009748644e-001
164		3.596453124919199e-003
	5.000000000000000e+000
	2.564515115461160e+000
	4.870969769077647e-001
	4.870969769077680e-001
	-4.870969769077679e-001
165		3.620867187419199e-003
	5.000000000000000e+000
	2.576378168965977e+000
	4.847243662068195e-001
	4.847243662068046e-001
	-4.847243662068045e-001
166		3.645281249919199e-003
	5.000000000000000e+000
	2.588183438479051e+000
	4.823633123041873e-001
	4.823633123041898e-001
	-4.823633123041898e-001
167		3.669695312419199e-003
	5.000000000000000e+000
	2.599931205461618e+000
	4.800137589076883e-001
	4.800137589076764e-001
	-4.800137589076764e-001
168		3.694109374919199e-003
	5.000000000000000e+000
	2.611621750003939e+000
	4.776756499992416e-001
	4.776756499992123e-001
	-4.776756499992121e-001
169		3.718523437419199e-003
	5.000000000000000e+000
	2.623255350831976e+000
	4.753489298336149e-001
	4.753489298336049e-001
	-4.753489298336048e-001
170		3.742937499919199e-003
	5.000000000000000e+000
	2.634832285314042e+000
	4.730335429372019e-001
	4.730335429371917e-001
	-4.730335429371917e-001
171		3.767351562419198e-003
	5.000000000000000e+000
	2.646352829467408e+000
	4.707294341065449e-001
	4.707294341065185e-001
	-4.707294341065185e-001
172		3.791765624919198e-003
	5.000000000000000e+000
	2.657817257964887e+000
	4.684365484069986e-001
	4.684365484070227e-001
	-4.684365484070227e-001
173		3.816179687419198e-003
	5.000000000000000e+000
	2.669225844141386e+000
	4.661548311717070e-001
	4.661548311717229e-001
	-4.661548311717229e-001
174		3.840593749919198e-003
	5.000000000000000e+000
	2.680578860000414e+000
	4.638842279998983e-001
	4.638842279999172e-001
	-4.638842279999171e-001
175		3.865007812419198e-003
	5.000000000000000e+000
	2.691876576220577e+000
	4.616246847558614e-001
	4.616246847558846e-001
	-4.616246847558846e-001
176		3.889421874919198e-003
	5.000000000000000e+000
	2.703119262162026e+000
	4.593761475675819e-001
	4.593761475675949e-001
	-4.593761475675949e-001
177		3.913835937419198e-003
	5.000000000000000e+000
	2.714307185872878e+000
	4.571385628254063e-001
	4.571385628254245e-001
	-4.571385628254244e-001
178		3.938249999919198e-003
	5.000000000000000e+000
	2.725440614095611e+000
	4.549118771809049e-001
	4.549118771808778e-001
	-4.549118771808778e-001
179		3.962664062419199e-003
	5.000000000000000e+000
	2.736519812273421e+000
	4.526960375453371e-001
	4.526960375453158e-001
	-4.526960375453157e-001
180		3.987078124919199e-003
	5.000000000000000e+000
	2.747545044556551e+000
	4.504909910886852e-001
	4.504909910886898e-001
	-4.504909910886898e-001
181		4.011492187419199e-003
	5.000000000000000e+000
	2.758516573808590e+000
	4.482966852382617e-001
	4.482966852382820e-001
	-4.482966852382820e-001
182		4.035906249919200e-003
	5.000000000000000e+000
	2.769434661612738e+000
	4.461130676774587e-001
	4.461130676774525e-001
	-4.461130676774524e-001
183		4.060320312419200e-003
	5.000000000000000e+000
	2.780299568278044e+000
	4.439400863444121e-001
	4.439400863443913e-001
	-4.439400863443913e-001
184		4.084734374919200e-003
	5.000000000000000e+000
	2.791111552845612e+000
	4.417776894308645e-001
	4.417776894308776e-001
	-4.417776894308775e-001
185		4.109148437419201e-003
	5.000000000000000e+000
	2.801870873094781e+000
	4.396258253810572e-001
	4.396258253810438e-001
	-4.396258253810437e-001
186		4.133562499919201e-003
	5.000000000000000e+000
	2.812577785549264e+000
	4.374844428901668e-001
	4.374844428901473e-001
	-4.374844428901473e-001
187		4.157976562419201e-003
	5.000000000000000e+000
	2.823232545483267e+000
	4.353534909033385e-001
	4.353534909033466e-001
	-4.353534909033466e-001
188		4.182390624919202e-003
	5.000000000000000e+000
	2.833835406927577e+000
	4.332329186144648e-001
	4.332329186144846e-001
	-4.332329186144847e-001
189		4.206804687419202e-003
	5.000000000000000e+000
	2.844386622675616e+000
	4.311226754648772e-001
	4.311226754648768e-001
	-4.311226754648768e-001
190		4.231218749919202e-003
	5.000000000000000e+000
	2.854886444289471e+000
	4.290227111421245e-001
	4.290227111421059e-001
	-4.290227111421059e-001
191		4.255632812419203e-003
	5.000000000000000e+000
	2.865335122105889e+000
	4.269329755788363e-001
	4.269329755788223e-001
	-4.269329755788223e-001
192		4.280046874919203e-003
	5.000000000000000e+000
	2.875732905242245e+000
	4.248534189515567e-001
	4.248534189515509e-001
	-4.248534189515509e-001
193		4.304460937419203e-003
	5.000000000000000e+000
	2.886080041602488e+000
	4.227839916795233e-001
	4.227839916795024e-001
	-4.227839916795024e-001
194		4.328874999919204e-003
	5.000000000000000e+000
	2.896376777883041e+000
	4.207246444233874e-001
	4.207246444233918e-001
	-4.207246444233918e-001
195		4.353289062419204e-003
	5.000000000000000e+000
	2.906623359578692e+000
	4.186753280842765e-001
	4.186753280842617e-001
	-4.186753280842616e-001
196		4.377703124919205e-003
	5.000000000000000e+000
	2.916820030988440e+000
	4.166359938022879e-001
	4.166359938023120e-001
	-4.166359938023120e-001
197		4.402117187419205e-003
	5.000000000000000e+000
	2.926967035221326e+000
	4.146065929557494e-001
	4.146065929557348e-001
	-4.146065929557347e-001
198		4.426531249919205e-003
	5.000000000000000e+000
	2.937064614202225e+000
	4.125870771595430e-001
	4.125870771595550e-001